# vtk DataFile Version 1.0
Stroked lines spell hello...
ASCII

DATASET UNSTRUCTURED_GRID

POINTS 12 double
0.4 0.495557 0.500042 0.400455 0.495789 0.500832 
0.400177 0.495922 0.500091 0.400092 0.496044 0.500527 
0.499922 0.495552 0.500037 0.500353 0.495788 0.500844 
0.500089 0.495923 0.500086 0.500009 0.496048 0.500531 
0.501902 0.49555 0.500033 0.50207 0.495923 0.500084 
0.501991 0.496049 0.50053 0.502332 0.495788 0.500839 

CELLS 12 24
1 0 1 1 1 2 1 3 1 4 1 5 1 6 1 7 1 8 1 9 1 10 1 11 
CELL_TYPES 12
1 1 1 1 1 1 1 1 1 1 1 1 
POINT_DATA 12

SCALARS class double 1
LOOKUP_TABLE default
0 0 0 0 0 0 0 0 0 0 0 0 

SCALARS color double 1
LOOKUP_TABLE default
4 4 4 4 3 3 3 3 2 2 2 2 

SCALARS dichte double 1
LOOKUP_TABLE default
999.999 1000 1000 1000 1001.91 1002.09 1002 1001.96 1002.1 1002.04 1002.08 1001.92 

SCALARS druck double 1
LOOKUP_TABLE default
-8.60392e-08 -1.81237e-08 1.99578e-08 5.35142e-08 0.000134619 0.000147291 0.000140685 0.000138338 0.000147701 0.000143825 0.000146441 0.000134911 

SCALARS flags double 1
LOOKUP_TABLE default
6 6 6 6 6 6 6 6 6 6 6 6 

SCALARS masse double 1
LOOKUP_TABLE default
2.5e-07 2.5e-07 2.5e-07 2.5e-07 2.5e-07 2.5e-07 2.5e-07 2.5e-07 2.5e-07 2.5e-07 2.5e-07 2.5e-07 

VECTORS vel double
5.857e-14 -0.295281 9.39191e-14
7.77332e-06 -0.295277 1.35076e-05
2.56027e-05 -0.295221 -1.22072e-06
-1.92072e-05 -0.295228 3.10055e-05
-0.0947195 -0.302928 -0.00785213
-0.116154 -0.297527 0.0182195
-0.105624 -0.292446 -0.00775565
-0.10083 -0.289173 0.00544334
-1.8825 -0.306525 -0.0134819
-1.88934 -0.292568 -0.010611
-1.88299 -0.28774 0.00412892
-1.90482 -0.296972 0.0113267


SCALARS waerme double 1
LOOKUP_TABLE default
1 1 1 1 1.17976 1.21942 1.20002 1.19105 1.22227 1.20966 1.22152 1.18093 

